version 2
run General-0-20200112-16:31:00-13738
attr configname General
attr datetime 20200112-16:31:00
attr experiment General
attr inifile omnetpp.ini
attr iterationvars ""
attr iterationvarsf ""
attr measurement ""
attr network SW1Node
attr processid 13738
attr repetition 0
attr replication #0
attr resultdir results
attr runnumber 0
attr seedset 0

vector 0 SW1Node.D arrivals ETV
attr interpolationmode none
vector 1 SW1Node.D retransmissions ETV
attr interpolationmode none
vector 2 SW1Node.D delay ETV
attr interpolationmode none
0	5	0.01	1
0	9	0.02099999994	1
0	13	0.03199999988	1
0	17	0.04199999988	1
0	21	0.05299999982	1
0	29	0.06299999982	1
0	31	0.07399999976	1
0	33	0.0849999997	1
0	39	0.0949999997	1
0	43	0.1049999997	1
0	47	0.11599999964	1
0	53	0.12699999958	1
0	55	0.13799999952	1
0	57	0.14899999946	1
0	63	0.15899999946	1
0	69	0.16899999946	1
0	71	0.1799999994	1
0	77	0.19099999934	1
0	79	0.20199999928	1
0	85	0.21299999922	1
0	87	0.22399999916	1
0	91	0.2349999991	1
0	95	0.2449999991	1
0	99	0.2549999991	1
0	103	0.26599999904	1
0	107	0.27599999904	1
0	111	0.28599999904	1
0	117	0.29599999904	1
0	125	0.30599999904	1
0	127	0.31699999898	1
0	133	0.32799999892	1
0	141	0.33899999886	1
0	145	0.34899999886	1
0	149	0.3599999988	1
0	153	0.3699999988	1
0	155	0.3799999988	1
0	157	0.3899999988	1
0	163	0.40099999874	1
0	167	0.41199999868	1
0	169	0.42299999862	1
0	175	0.43299999862	1
0	177	0.44399999856	1
0	179	0.4549999985	1
0	181	0.46599999844	1
0	191	0.47699999838	1
0	193	0.48699999838	1
0	199	0.49799999832	1
0	207	0.50799999832	1
0	211	0.51799999832	1
0	213	0.52799999832	1
0	215	0.53799999832	1
0	217	0.54799999832	1
0	223	0.55799999832	1
0	225	0.56899999826	1
0	227	0.57899999826	1
0	229	0.5899999982	1
0	231	0.5999999982	1
0	235	0.6099999982	1
1	13	0.03199999988	1
1	21	0.05299999982	1
1	33	0.0849999997	1
1	91	0.2349999991	1
1	95	0.2449999991	1
1	103	0.26599999904	1
1	111	0.28599999904	1
1	117	0.29599999904	1
1	155	0.3799999988	1
1	169	0.42299999862	1
1	207	0.50799999832	1
1	211	0.51799999832	1
1	215	0.53799999832	1
1	225	0.56899999826	1
1	231	0.5999999982	1
1	235	0.6099999982	1
2	13	0.03199999988	1
2	21	0.05299999982	1
2	33	0.0849999997	1
2	91	0.2349999991	1
2	95	0.2449999991	1
2	103	0.26599999904	1
2	111	0.28599999904	1
2	117	0.29599999904	1
2	155	0.3799999988	1
2	169	0.42299999862	1
2	207	0.50799999832	1
2	211	0.51799999832	1
2	215	0.53799999832	1
2	225	0.56899999826	1
2	231	0.5999999982	1
2	235	0.6099999982	1

